/*--------------------------------*- C++ -*----------------------------------*\
| =========                 |                                                 |
| \\      /  F ield         | OpenFOAM: The Open Source CFD Toolbox           |
|  \\    /   O peration     | Version:  4.1                                   |
|   \\  /    A nd           | Web:      www.OpenFOAM.org                      |
|    \\/     M anipulation  |                                                 |
\*---------------------------------------------------------------------------*/
FoamFile
{
    version     2.0;
    format      ascii;
    class       volScalarField;
    location    "0";
    object      yPlus;
}
// * * * * * * * * * * * * * * * * * * * * * * * * * * * * * * * * * * * * * //

dimensions      [0 0 0 0 0 0 0];

internalField   uniform 0;

boundaryField
{
    inlet
    {
        type            calculated;
        value           uniform 0;
    }
    outlet
    {
        type            calculated;
        value           uniform 0;
    }
    frontandback
    {
        type            empty;
    }
    upperwall
    {
        type            symmetry;
    }
    lowerwall
    {
        type            symmetry;
    }
    pipe1
    {
        type            calculated;
        value           nonuniform List<scalar> 
176
(
19.2052
19.2052
40.3792
40.3792
24.9301
31.3897
24.9301
31.3897
47.0179
31.3897
27.5651
19.2052
18.9896
18.9896
18.9896
19.6738
19.6738
45.31
19.6738
19.8834
39.3751
19.8834
29.3708
45.7162
40.7654
45.7162
19.8834
29.3708
44.9673
29.3708
24.9301
32.0172
49.3513
49.3513
40.3792
32.0172
47.8725
50.0416
50.0416
40.7654
47.8725
29.3708
39.3751
29.3708
28.2982
28.2982
33.7451
32.3424
34.9908
38.7994
26.9097
18.9178
28.2982
38.7994
18.9178
28.2982
18.9178
18.9178
18.9178
18.8322
18.8322
24.1756
33.5881
24.1756
30.5898
24.1756
30.5898
30.5898
24.1756
33.5881
24.1756
42.6008
35.7297
40.3093
26.9097
35.7297
32.3424
38.082
33.7451
35.7297
38.082
42.6008
42.6008
33.5881
38.082
30.5898
24.1756
42.6008
32.0282
27.0347
31.9069
28.5481
30.5362
35.7404
35.1193
35.7404
32.0282
32.0282
19.6139
13.0426
32.0282
17.6436
13.0426
15.9588
15.9588
17.8185
19.1855
15.2663
32.5565
15.2663
32.5565
34.2163
37.6286
26.7705
15.9588
39.3277
39.3277
32.5565
30.5362
30.5362
28.5481
34.3484
35.1193
28.5481
34.3484
39.3277
34.3484
26.7705
29.2477
34.2163
37.6286
34.3484
27.998
27.998
31.4639
32.3695
31.2155
43.9397
31.4639
20.5722
31.4639
31.4639
20.5722
27.998
27.998
20.5722
27.998
26.1555
26.1555
17.6582
26.1555
17.6582
40.2275
17.6582
40.2275
37.9092
26.1555
37.9092
26.1555
39.8642
37.6675
48.1459
31.2155
37.6675
32.3695
28.0712
31.4639
32.3695
28.0712
39.8642
28.0712
26.1555
41.4204
37.9092
37.6208
28.0712
)
;
    }
    pipe2
    {
        type            calculated;
        value           nonuniform List<scalar> 
176
(
38.6349
38.6349
46.3198
38.0052
38.5831
38.5831
29.3801
17.2741
38.6349
29.3801
17.2741
17.2741
17.2741
17.2741
17.2741
17.5786
17.5786
33.1505
33.6184
17.5786
35.8375
17.5786
37.0932
37.0932
33.1505
37.0932
17.5786
32.6793
32.4494
32.6793
38.5831
32.4494
45.1462
30.7832
29.3801
38.0052
41.605
32.6793
30.7832
37.0932
41.605
37.0932
33.1505
41.605
18.8272
18.8272
22.6214
27.9306
50.2351
41.9101
27.9306
22.4462
41.9101
41.9101
22.4462
18.8272
18.8272
22.4462
18.8272
18.1511
18.1511
18.8111
33.018
18.8111
37.0522
18.8111
37.0522
37.0522
33.018
47.2207
18.1511
40.8343
51.7014
40.8343
27.9306
27.9306
53.1659
43.9008
27.9306
27.9306
45.8475
43.9008
43.9008
33.018
45.8475
37.0522
33.018
37.0522
26.178
26.178
26.9204
23.1333
23.6616
22.4694
26.9204
22.4694
26.178
26.178
18.129
26.178
26.178
18.129
26.178
22.0018
22.0018
25.1571
30.0115
22.0018
33.9664
22.0018
33.9664
30.2899
25.1571
34.8088
22.0018
32.3424
31.3643
33.1776
23.6616
31.3643
23.1333
24.6896
26.9204
23.1333
24.6896
32.3424
24.6896
34.8088
28.5302
30.2899
25.1571
24.6896
27.8663
27.8663
30.4506
30.4506
29.776
45.1529
30.4506
21.9197
30.4506
30.4506
21.9197
21.9197
21.9197
21.9197
21.9197
15.916
15.916
27.6736
15.916
25.1571
33.0598
25.1571
35.1515
36.9719
33.0598
28.6088
25.1571
29.7224
28.8872
35.1515
28.8872
28.8872
36.8969
36.8969
30.4506
28.8872
36.8969
29.7224
29.7224
33.5595
36.9719
35.1515
33.0598
29.7224
)
;
    }
}


// ************************************************************************* //
