/*--------------------------------*- C++ -*----------------------------------*\
| =========                 |                                                 |
| \\      /  F ield         | OpenFOAM: The Open Source CFD Toolbox           |
|  \\    /   O peration     | Version:  4.1                                   |
|   \\  /    A nd           | Web:      www.OpenFOAM.org                      |
|    \\/     M anipulation  |                                                 |
\*---------------------------------------------------------------------------*/
FoamFile
{
    version     2.0;
    format      ascii;
    class       volScalarField;
    location    "0";
    object      yPlus;
}
// * * * * * * * * * * * * * * * * * * * * * * * * * * * * * * * * * * * * * //

dimensions      [0 0 0 0 0 0 0];

internalField   uniform 0;

boundaryField
{
    inlet
    {
        type            calculated;
        value           uniform 0;
    }
    frontandback
    {
        type            empty;
    }
    upperwall
    {
        type            symmetry;
    }
    lowerwall
    {
        type            symmetry;
    }
    outlet
    {
        type            calculated;
        value           uniform 0;
    }
    pipe1
    {
        type            calculated;
        value           nonuniform List<scalar> 
176
(
26.9704
26.9704
33.92
36.5186
28.0591
36.4793
28.0591
19.0677
36.4793
36.4793
19.0677
26.9704
19.0677
19.0677
19.0677
19.7138
19.7138
19.7102
19.7138
19.7102
50.6819
19.7102
35.8439
40.8304
33.7451
40.8304
19.7138
35.8439
28.9657
35.8439
28.0591
28.9657
36.5186
36.5186
33.92
28.9657
35.8439
28.9657
28.9657
33.7451
40.8304
35.8439
33.7451
35.8439
23.7664
23.7664
53.541
53.541
53.541
53.541
53.541
19.5797
53.541
53.541
19.5797
23.7664
19.5797
19.5797
19.5797
21.0552
21.0552
24.7625
27.2771
24.7625
53.541
24.7625
53.541
53.541
53.541
53.541
21.0552
53.541
53.541
53.541
53.541
53.541
53.541
53.541
53.541
53.541
53.541
53.541
53.541
53.541
53.541
53.541
53.541
53.541
27.7735
27.7735
27.4237
36.1688
33.7773
26.5742
26.5742
20.8703
27.4237
26.5742
20.8703
27.7735
27.7735
20.8703
27.7735
20.1279
20.1279
28.8693
20.1279
28.8693
52.2061
25.2143
52.2061
44.282
28.8693
35.0587
28.8693
35.5048
45.6277
35.5048
33.7773
40.5413
36.1688
33.1776
26.5742
40.5413
33.1776
35.5048
33.1776
35.0587
44.282
44.282
28.8693
33.1776
35.6515
20.6676
33.9761
32.0943
35.2743
27.135
35.2743
27.135
35.6515
35.6515
27.135
19.3551
27.135
27.135
27.135
20.523
20.523
36.9187
26.8055
20.523
38.6941
20.523
38.6941
40.225
36.9187
39.3448
20.523
38.6941
50.4956
38.6941
35.2743
35.2743
32.0943
32.0943
32.0943
32.0943
40.225
50.4956
32.0943
26.8055
40.225
38.6941
36.9187
38.6941
)
;
    }
    pipe2
    {
        type            calculated;
        value           nonuniform List<scalar> 
176
(
25.6212
25.6212
38.0748
30.1436
34.177
26.6777
24.2184
24.0542
26.6777
26.6777
24.0542
25.6212
25.6212
24.0542
25.6212
20.5312
20.5312
30.936
39.5633
20.5312
33.7558
20.5312
25.714
30.1472
29.5511
30.1472
20.5312
26.742
29.7724
32.3031
24.2184
29.7724
30.1436
32.6315
24.2184
26.4493
32.6315
26.742
26.4493
30.1472
29.0121
25.714
29.5511
26.742
22.1878
22.1878
22.6514
27.0629
29.2712
25.2953
27.524
25.2953
30.5444
27.524
25.2953
22.1878
22.1878
22.1878
22.1878
15.5665
15.5665
23.8247
27.1321
15.5665
24.1827
15.5665
25.9867
27.1603
31.7805
27.1603
15.5665
27.4091
25.3295
27.4091
27.524
21.4696
27.0629
26.8644
22.6514
21.4696
25.4552
26.8644
26.8644
27.1603
25.4552
25.9867
24.1827
29.2023
28.5873
28.5873
30.9146
30.497
29.2477
36.2366
30.9146
21.8519
28.5873
28.5873
21.8519
15.0629
21.8519
21.8519
21.8519
15.9053
15.9053
37.3931
30.1507
26.0995
30.6326
26.0995
30.6326
33.042
26.0995
32.1746
26.0995
33.3525
28.0769
36.3187
29.2477
28.0769
30.497
29.4833
30.9146
28.0769
29.4833
33.3525
30.7718
30.1507
29.4833
33.042
37.3931
30.7718
29.3748
29.3748
28.2286
26.4778
29.8852
26.5856
23.2439
26.5856
29.3748
29.3748
26.5856
17.9316
26.5856
26.5856
26.5856
19.1024
19.1024
30.7129
25.326
17.5111
24.9897
17.5111
24.9897
37.7557
32.3413
37.7557
19.1024
28.9129
33.3089
36.8783
29.8852
33.3089
33.7041
28.9129
23.2439
26.4778
28.9129
28.9129
28.9129
32.3413
33.2129
37.7557
30.7129
28.9129
)
;
    }
}


// ************************************************************************* //
