/*--------------------------------*- C++ -*----------------------------------*\
| =========                 |                                                 |
| \\      /  F ield         | OpenFOAM: The Open Source CFD Toolbox           |
|  \\    /   O peration     | Version:  4.1                                   |
|   \\  /    A nd           | Web:      www.OpenFOAM.org                      |
|    \\/     M anipulation  |                                                 |
\*---------------------------------------------------------------------------*/
FoamFile
{
    version     2.0;
    format      ascii;
    class       volScalarField;
    location    "0";
    object      yPlus;
}
// * * * * * * * * * * * * * * * * * * * * * * * * * * * * * * * * * * * * * //

dimensions      [0 0 0 0 0 0 0];

internalField   uniform 0;

boundaryField
{
    inlet
    {
        type            calculated;
        value           uniform 0;
    }
    outlet
    {
        type            calculated;
        value           uniform 0;
    }
    frontandback
    {
        type            empty;
    }
    upperwall
    {
        type            symmetry;
    }
    lowerwall
    {
        type            symmetry;
    }
    pipe1
    {
        type            calculated;
        value           nonuniform List<scalar> 
176
(
8.61431
8.61431
18.1117
18.1117
11.1822
14.0796
11.1822
14.0796
21.0895
14.0796
12.3641
8.61431
8.51761
8.51761
8.51761
8.82453
8.82453
20.3234
8.82453
8.91851
17.6614
8.91851
13.174
20.5056
18.285
20.5056
8.91851
13.174
20.1697
13.174
11.1822
14.361
22.1361
22.1361
18.1117
14.361
21.4728
22.4457
22.4457
18.285
21.4728
13.174
17.6614
13.174
12.6929
12.6929
15.1361
14.5069
15.6948
17.4031
12.0701
8.48543
12.6929
17.4031
8.48543
12.6929
8.48543
8.48543
8.48543
8.447
8.447
10.8437
15.0656
10.8437
13.7208
10.8437
13.7208
13.7208
10.8437
15.0656
10.8437
19.1082
16.0263
18.0804
12.0701
16.0263
14.5069
17.0813
15.1361
16.0263
17.0813
19.1082
19.1082
15.0656
17.0813
13.7208
10.8437
19.1082
14.366
12.1262
14.3116
12.805
13.6968
16.0311
15.7525
16.0311
14.366
14.366
8.79763
5.85014
14.366
7.91386
5.85014
7.15818
7.15818
7.99231
8.60551
6.84758
14.6029
6.84758
14.6029
15.3474
16.878
12.0077
7.15818
17.6401
17.6401
14.6029
13.6968
13.6968
12.805
15.4067
15.7525
12.805
15.4067
17.6401
15.4067
12.0077
13.1188
15.3474
16.878
15.4067
12.5583
12.5583
14.1129
14.519
14.0014
19.7088
14.1129
9.2275
14.1129
14.1129
9.2275
12.5583
12.5583
9.2275
12.5583
11.7318
11.7318
7.92043
11.7318
7.92043
18.0437
7.92043
18.0437
17.0038
11.7318
17.0038
11.7318
17.8807
16.8954
21.5954
14.0014
16.8954
14.519
12.5911
14.1129
14.519
12.5911
17.8807
12.5911
11.7318
18.5788
17.0038
16.8745
12.5911
)
;
    }
    pipe2
    {
        type            calculated;
        value           nonuniform List<scalar> 
176
(
17.3293
17.3293
20.7763
17.0469
17.3061
17.3061
13.1782
7.74816
17.3293
13.1782
7.74816
7.74816
7.74816
7.74816
7.74816
7.88472
7.88472
14.8694
15.0792
7.88472
16.0746
7.88472
16.6378
16.6378
14.8694
16.6378
7.88472
14.658
14.5549
14.658
17.3061
14.5549
20.2499
13.8076
13.1782
17.0469
18.6615
14.658
13.8076
16.6378
18.6615
16.6378
14.8694
18.6615
8.44476
8.44476
10.1467
12.528
22.5325
18.7984
12.528
10.068
18.7984
18.7984
10.068
8.44476
8.44476
10.068
8.44476
8.14153
8.14153
8.43756
14.81
8.43756
16.6194
8.43756
16.6194
16.6194
14.81
21.1804
8.14153
18.3159
23.1902
18.3159
12.528
12.528
23.8471
19.6913
12.528
12.528
20.5645
19.6913
19.6913
14.81
20.5645
16.6194
14.81
16.6194
11.7419
11.7419
12.0749
10.3762
10.6132
10.0784
12.0749
10.0784
11.7419
11.7419
8.1316
11.7419
11.7419
8.1316
11.7419
9.86871
9.86871
11.284
13.4614
9.86871
15.2353
9.86871
15.2353
13.5863
11.284
15.6132
9.86871
14.5069
14.0682
14.8815
10.6132
14.0682
10.3762
11.0743
12.0749
10.3762
11.0743
14.5069
11.0743
15.6132
12.797
13.5863
11.284
11.0743
12.4992
12.4992
13.6583
13.6583
13.3557
20.253
13.6583
9.83189
13.6583
13.6583
9.83189
9.83189
9.83189
9.83189
9.83189
7.13897
7.13897
12.4127
7.13897
11.284
14.8287
11.284
15.7669
16.5834
14.8287
12.8322
11.284
13.3317
12.9571
15.7669
12.9571
12.9571
16.5498
16.5498
13.6583
12.9571
16.5498
13.3317
13.3317
15.0528
16.5834
15.7669
14.8287
13.3317
)
;
    }
}


// ************************************************************************* //
