/*--------------------------------*- C++ -*----------------------------------*\
| =========                 |                                                 |
| \\      /  F ield         | OpenFOAM: The Open Source CFD Toolbox           |
|  \\    /   O peration     | Version:  4.1                                   |
|   \\  /    A nd           | Web:      www.OpenFOAM.org                      |
|    \\/     M anipulation  |                                                 |
\*---------------------------------------------------------------------------*/
FoamFile
{
    version     2.0;
    format      ascii;
    class       volScalarField;
    location    "0";
    object      yPlus;
}
// * * * * * * * * * * * * * * * * * * * * * * * * * * * * * * * * * * * * * //

dimensions      [0 0 0 0 0 0 0];

internalField   uniform 0;

boundaryField
{
    inlet
    {
        type            calculated;
        value           uniform 0;
    }
    frontandback
    {
        type            empty;
    }
    upperwall
    {
        type            symmetry;
    }
    lowerwall
    {
        type            symmetry;
    }
    outlet
    {
        type            calculated;
        value           uniform 0;
    }
    pipe1
    {
        type            calculated;
        value           nonuniform List<scalar> 
176
(
12.0973
12.0973
15.2145
16.3801
12.5857
16.3625
12.5857
8.55267
16.3625
16.3625
8.55267
12.0973
8.55267
8.55267
8.55267
8.84246
8.84246
8.84086
8.84246
8.84086
22.7329
8.84086
16.0775
18.3141
15.1361
18.3141
8.84246
16.0775
12.9923
16.0775
12.5857
12.9923
16.3801
16.3801
15.2145
12.9923
16.0775
12.9923
12.9923
15.1361
18.3141
16.0775
15.1361
16.0775
10.6602
10.6602
24.0154
24.0154
24.0154
24.0154
24.0154
8.78232
24.0154
24.0154
8.78232
10.6602
8.78232
8.78232
8.78232
9.44411
9.44411
11.107
12.2349
11.107
24.0154
11.107
24.0154
24.0154
24.0154
24.0154
9.44411
24.0154
24.0154
24.0154
24.0154
24.0154
24.0154
24.0154
24.0154
24.0154
24.0154
24.0154
24.0154
24.0154
24.0154
24.0154
24.0154
24.0154
12.4576
12.4576
12.3007
16.2232
15.1505
11.9196
11.9196
9.36119
12.3007
11.9196
9.36119
12.4576
12.4576
9.36119
12.4576
9.02818
9.02818
12.9491
9.02818
12.9491
23.4166
11.3096
23.4166
19.8623
12.9491
15.7253
12.9491
15.9254
20.4659
15.9254
15.1505
18.1844
16.2232
14.8815
11.9196
18.1844
14.8815
15.9254
14.8815
15.7253
19.8623
19.8623
12.9491
14.8815
15.9912
9.27025
15.2397
14.3956
15.822
12.1711
15.822
12.1711
15.9912
15.9912
12.1711
8.68155
12.1711
12.1711
12.1711
9.20541
9.20541
16.5596
12.0234
9.20541
17.3559
9.20541
17.3559
18.0426
16.5596
17.6478
9.20541
17.3559
22.6494
17.3559
15.822
15.822
14.3956
14.3956
14.3956
14.3956
18.0426
22.6494
14.3956
12.0234
18.0426
17.3559
16.5596
17.3559
)
;
    }
    pipe2
    {
        type            calculated;
        value           nonuniform List<scalar> 
176
(
11.4922
11.4922
17.0781
13.5207
15.3298
11.9661
10.863
10.7893
11.9661
11.9661
10.7893
11.4922
11.4922
10.7893
11.4922
9.20909
9.20909
13.8761
17.7458
9.20909
15.1409
9.20909
11.5338
13.5223
13.2549
13.5223
9.20909
11.9949
13.3541
14.4893
10.863
13.3541
13.5207
14.6366
10.863
11.8636
14.6366
11.9949
11.8636
13.5223
13.0131
11.5338
13.2549
11.9949
9.95213
9.95213
10.1601
12.1388
13.1294
11.346
12.3457
11.346
13.7004
12.3457
11.346
9.95213
9.95213
9.95213
9.95213
6.98223
6.98223
10.6864
12.1699
6.98223
10.8469
6.98223
11.6561
12.1825
14.2549
12.1825
6.98223
12.2941
11.3613
12.2941
12.3457
9.63
12.1388
12.0498
10.1601
9.63
11.4177
12.0498
12.0498
12.1825
11.4177
11.6561
10.8469
13.0985
12.8226
12.8226
13.8665
13.6792
13.1188
16.2536
13.8665
9.80147
12.8226
12.8226
9.80147
6.75632
9.80147
9.80147
9.80147
7.13416
7.13416
16.7723
13.5239
11.7067
13.74
11.7067
13.74
14.8207
11.7067
14.4316
11.7067
14.96
12.5937
16.2904
13.1188
12.5937
13.6792
13.2245
13.8665
12.5937
13.2245
14.96
13.8024
13.5239
13.2245
14.8207
16.7723
13.8024
13.1758
13.1758
12.6617
11.8764
13.4047
11.9247
10.4259
11.9247
13.1758
13.1758
11.9247
8.04307
11.9247
11.9247
11.9247
8.5682
8.5682
13.776
11.3597
7.85447
11.2089
7.85447
11.2089
16.935
14.5064
16.935
8.5682
12.9686
14.9404
16.5415
13.4047
14.9404
15.1177
12.9686
10.4259
11.8764
12.9686
12.9686
12.9686
14.5064
14.8974
16.935
13.776
12.9686
)
;
    }
}


// ************************************************************************* //
